
     Program PWSCF v.7.2 starts on 28Jan2025 at  0:12:37 

     This program is part of the open-source Quantum ESPRESSO suite
     for quantum simulation of materials; please cite
         "P. Giannozzi et al., J. Phys.:Condens. Matter 21 395502 (2009);
         "P. Giannozzi et al., J. Phys.:Condens. Matter 29 465901 (2017);
         "P. Giannozzi et al., J. Chem. Phys. 152 154105 (2020);
          URL http://www.quantum-espresso.org", 
     in publications or presentations arising from this work. More details at
     http://www.quantum-espresso.org/quote

     Parallel version (MPI), running on   104 processors

     MPI processes distributed on     1 nodes
     247669 MiB available memory on the printing compute node when the environment starts

     Reading input from H2O.in
Warning: card &CELL ignored
Warning: card / ignored
Warning: card &FCP ignored
Warning: card / ignored
Warning: card &RISM ignored
Warning: card / ignored

     Current dimensions of program PWSCF are:
     Max number of different atomic species (ntypx) = 10
     Max number of k-points (npk) =  40000
     Max angular momentum in pseudopotentials (lmaxx) =  4
     Found identity + ( -0.5000  0.0000  0.0000) symmetry
     This is a supercell, fractional translations are disabled

     K-points division:     npool     =       4
     R & G space division:  proc/nbgrp/npool/nimage =      26
     Subspace diagonalization in iterative solution of the eigenvalue problem:
     a serial algorithm will be used


     Parallelization info
     --------------------
     sticks:   dense  smooth     PW     G-vecs:    dense   smooth      PW
     Min         410     218     59                27910    10870    1539
     Max         411     219     60                27913    10873    1542
     Sum       10669    5693   1547               725683   282691   40057

     Using Slab Decomposition



     bravais-lattice index     =            0
     lattice parameter (alat)  =      16.0252  a.u.
     unit-cell volume          =    2923.4479 (a.u.)^3
     number of atoms/cell      =           48
     number of atomic types    =            2
     number of electrons       =       128.00
     number of Kohn-Sham states=           77
     kinetic-energy cutoff     =      80.0000  Ry
     charge density cutoff     =     600.0000  Ry
     scf convergence threshold =      1.0E-06
     mixing beta               =       0.7000
     number of iterations used =            8  plain     mixing
     Exchange-correlation= PBESOL
                           (   1   4  10   8   0   0   0)

     celldm(1)=  16.025151  celldm(2)=   0.000000  celldm(3)=   0.000000
     celldm(4)=   0.000000  celldm(5)=   0.000000  celldm(6)=   0.000000

     crystal axes: (cart. coord. in units of alat)
               a(1) = (   1.000000   0.000000   0.000000 )  
               a(2) = (  -0.000000   0.869736   0.000000 )  
               a(3) = (   0.000000   0.000000   0.816773 )  

     reciprocal axes: (cart. coord. in units 2 pi/alat)
               b(1) = (  1.000000  0.000000 -0.000000 )  
               b(2) = (  0.000000  1.149774  0.000000 )  
               b(3) = (  0.000000 -0.000000  1.224330 )  


     PseudoPot. # 1 for H  read from file:
     /scratch/ztzhao/DPGEN/pseudo/H.upf
     MD5 check sum: 2b01150b329c0ad90dcee1a32b83a999
     Pseudo is Norm-conserving, Zval =  1.0
     Generated using ONCVPSP code by D. R. Hamann
     Using radial grid of 1180 points,  3 beta functions with: 
                l(1) =   0
                l(2) =   0
                l(3) =   1

     PseudoPot. # 2 for O  read from file:
     /scratch/ztzhao/DPGEN/pseudo/O.upf
     MD5 check sum: 3b5df377d66cd4cd4a4ac13a7f894964
     Pseudo is Norm-conserving + core correction, Zval =  6.0
     Generated using ONCVPSP code by D. R. Hamann
     Using radial grid of  936 points,  5 beta functions with: 
                l(1) =   0
                l(2) =   0
                l(3) =   1
                l(4) =   1
                l(5) =   2

     atomic species   valence    mass     pseudopotential
        H              1.00     1.00800     H ( 1.00)
        O              6.00    15.99900     O ( 1.00)

     No symmetry found



   Cartesian axes

     site n.     atom                  positions (alat units)
         1           H   tau(   1) = (   0.2500000   0.1426100   0.2444587  )
         2           H   tau(   2) = (   0.7500000   0.1426100   0.2444587  )
         3           H   tau(   3) = (  -0.0000000   0.2922582   0.6528452  )
         4           H   tau(   4) = (   0.5000000   0.2922582   0.6528452  )
         5           H   tau(   5) = (   0.2500000   0.0343809   0.3949438  )
         6           H   tau(   6) = (   0.7500000   0.0343809   0.3949438  )
         7           H   tau(   7) = (  -0.0000000   0.4004873   0.8033302  )
         8           H   tau(   8) = (   0.5000000   0.4004873   0.8033302  )
         9           H   tau(   9) = (   0.0924976   0.2329817   0.4223431  )
        10           H   tau(  10) = (   0.5924976   0.2329817   0.4223431  )
        11           H   tau(  11) = (   0.4075024   0.2329817   0.4223431  )
        12           H   tau(  12) = (   0.9075024   0.2329817   0.4223431  )
        13           H   tau(  13) = (   0.1575024   0.2018865   0.0139567  )
        14           H   tau(  14) = (   0.6575024   0.2018865   0.0139567  )
        15           H   tau(  15) = (   0.3424976   0.2018865   0.0139567  )
        16           H   tau(  16) = (   0.8424976   0.2018865   0.0139567  )
        17           H   tau(  17) = (  -0.0000000   0.5774783   0.2444587  )
        18           H   tau(  18) = (   0.5000000   0.5774783   0.2444587  )
        19           H   tau(  19) = (   0.2500000   0.7271264   0.6528452  )
        20           H   tau(  20) = (   0.7500000   0.7271264   0.6528452  )
        21           H   tau(  21) = (  -0.0000000   0.4692491   0.3949438  )
        22           H   tau(  22) = (   0.5000000   0.4692491   0.3949438  )
        23           H   tau(  23) = (   0.2500000   0.8353555   0.8033302  )
        24           H   tau(  24) = (   0.7500000   0.8353555   0.8033302  )
        25           H   tau(  25) = (   0.3424976   0.6678499   0.4223431  )
        26           H   tau(  26) = (   0.8424976   0.6678499   0.4223431  )
        27           H   tau(  27) = (   0.1575024   0.6678499   0.4223431  )
        28           H   tau(  28) = (   0.6575024   0.6678499   0.4223431  )
        29           H   tau(  29) = (   0.4075024   0.6367547   0.0139567  )
        30           H   tau(  30) = (   0.9075024   0.6367547   0.0139567  )
        31           H   tau(  31) = (   0.0924976   0.6367547   0.0139567  )
        32           H   tau(  32) = (   0.5924976   0.6367547   0.0139567  )
        33           O   tau(  33) = (   0.2500000   0.1437999   0.3595337  )
        34           O   tau(  34) = (   0.7500000   0.1437999   0.3595337  )
        35           O   tau(  35) = (  -0.0000000   0.2910683   0.7679201  )
        36           O   tau(  36) = (   0.5000000   0.2910683   0.7679201  )
        37           O   tau(  37) = (  -0.0000000   0.2891712   0.4613133  )
        38           O   tau(  38) = (   0.5000000   0.2891712   0.4613133  )
        39           O   tau(  39) = (   0.2500000   0.1456971   0.0529269  )
        40           O   tau(  40) = (   0.7500000   0.1456971   0.0529269  )
        41           O   tau(  41) = (  -0.0000000   0.5786681   0.3595337  )
        42           O   tau(  42) = (   0.5000000   0.5786681   0.3595337  )
        43           O   tau(  43) = (   0.2500000   0.7259366   0.7679201  )
        44           O   tau(  44) = (   0.7500000   0.7259366   0.7679201  )
        45           O   tau(  45) = (   0.2500000   0.7240394   0.4613133  )
        46           O   tau(  46) = (   0.7500000   0.7240394   0.4613133  )
        47           O   tau(  47) = (  -0.0000000   0.5805653   0.0529269  )
        48           O   tau(  48) = (   0.5000000   0.5805653   0.0529269  )

     number of k points=   112  Marzari-Vanderbilt smearing, width (Ry)=  0.0100

     Number of k-points >= 100: set verbosity='high' to print them.

     Dense  grid:   725683 G-vectors     FFT dimensions: ( 125, 120, 108)

     Smooth grid:   282691 G-vectors     FFT dimensions: (  96,  80,  75)

     Estimated max dynamical RAM per process >      82.08 MB

     Estimated total dynamical RAM >       7.82 GB

     Initial potential from superposition of free atoms

     starting charge     127.9996, renormalised to     128.0000
     Starting wfcs are   96 randomized atomic wfcs

     total cpu time spent up to now is        3.6 secs

     Self-consistent Calculation

     iteration #  1     ecut=    80.00 Ry     beta= 0.70
     Davidson diagonalization with overlap
     ethr =  1.00E-02,  avg # of iterations =  7.5

     total cpu time spent up to now is       14.2 secs

     total energy              =    -564.30738426 Ry
     estimated scf accuracy    <       5.03219100 Ry

     iteration #  2     ecut=    80.00 Ry     beta= 0.70
     Davidson diagonalization with overlap
     ethr =  3.93E-03,  avg # of iterations =  2.8

     total cpu time spent up to now is       22.2 secs

     total energy              =    -565.77655997 Ry
     estimated scf accuracy    <       2.13697872 Ry

     iteration #  3     ecut=    80.00 Ry     beta= 0.70
     Davidson diagonalization with overlap
     ethr =  1.67E-03,  avg # of iterations =  2.4

     total cpu time spent up to now is       29.4 secs

     total energy              =    -566.11054362 Ry
     estimated scf accuracy    <       0.03694647 Ry

     iteration #  4     ecut=    80.00 Ry     beta= 0.70
     Davidson diagonalization with overlap
     ethr =  2.89E-05,  avg # of iterations =  9.8

     total cpu time spent up to now is       42.3 secs

     total energy              =    -566.13172217 Ry
     estimated scf accuracy    <       0.03093891 Ry

     iteration #  5     ecut=    80.00 Ry     beta= 0.70
     Davidson diagonalization with overlap
     ethr =  2.42E-05,  avg # of iterations =  1.1

     total cpu time spent up to now is       47.6 secs

     total energy              =    -566.13127556 Ry
     estimated scf accuracy    <       0.00445029 Ry

     iteration #  6     ecut=    80.00 Ry     beta= 0.70
     Davidson diagonalization with overlap
     ethr =  3.48E-06,  avg # of iterations =  4.0

     total cpu time spent up to now is       56.8 secs

     total energy              =    -566.13287780 Ry
     estimated scf accuracy    <       0.00027987 Ry

     iteration #  7     ecut=    80.00 Ry     beta= 0.70
     Davidson diagonalization with overlap
     ethr =  2.19E-07,  avg # of iterations =  2.2

     total cpu time spent up to now is       62.7 secs

     total energy              =    -566.13288126 Ry
     estimated scf accuracy    <       0.00005844 Ry

     iteration #  8     ecut=    80.00 Ry     beta= 0.70
     Davidson diagonalization with overlap
     ethr =  4.57E-08,  avg # of iterations =  2.0

     total cpu time spent up to now is       68.8 secs

     total energy              =    -566.13287843 Ry
     estimated scf accuracy    <       0.00001334 Ry

     iteration #  9     ecut=    80.00 Ry     beta= 0.70
     Davidson diagonalization with overlap
     ethr =  1.04E-08,  avg # of iterations =  2.0

     total cpu time spent up to now is       76.0 secs

     End of self-consistent calculation

     Number of k-points >= 100: set verbosity='high' to print the bands.

     the Fermi energy is     1.9844 ev

!    total energy              =    -566.13288199 Ry
     estimated scf accuracy    <       0.00000028 Ry
     smearing contrib. (-TS)   =      -0.00000000 Ry
     internal energy E=F+TS    =    -566.13288199 Ry

     The total energy is F=E-TS. E is the sum of the following terms:
     one-electron contribution =    -436.11045727 Ry
     hartree contribution      =     263.58612745 Ry
     xc contribution           =    -155.74680206 Ry
     ewald contribution        =    -237.86175011 Ry

     convergence has been achieved in   9 iterations

     Forces acting on atoms (cartesian axes, Ry/au):

     atom    1 type  1   force =     0.00000001    0.00081178   -0.04838121
     atom    2 type  1   force =    -0.00000001    0.00081165   -0.04838255
     atom    3 type  1   force =     0.00000002   -0.00081153   -0.04838210
     atom    4 type  1   force =    -0.00000003   -0.00081153   -0.04838197
     atom    5 type  1   force =    -0.00000003   -0.04656594    0.01596623
     atom    6 type  1   force =    -0.00000003   -0.04656663    0.01596632
     atom    7 type  1   force =     0.00000000    0.04656619    0.01596617
     atom    8 type  1   force =    -0.00000005    0.04656595    0.01596614
     atom    9 type  1   force =     0.04008326   -0.02326760   -0.01598762
     atom   10 type  1   force =     0.04008360   -0.02326794   -0.01598777
     atom   11 type  1   force =    -0.04008305   -0.02326754   -0.01598758
     atom   12 type  1   force =    -0.04008371   -0.02326784   -0.01598778
     atom   13 type  1   force =    -0.04008282    0.02326773   -0.01598754
     atom   14 type  1   force =    -0.04008318    0.02326785   -0.01598764
     atom   15 type  1   force =     0.04008264    0.02326757   -0.01598744
     atom   16 type  1   force =     0.04008321    0.02326782   -0.01598766
     atom   17 type  1   force =    -0.00000002    0.00081160   -0.04838330
     atom   18 type  1   force =    -0.00000001    0.00081142   -0.04838349
     atom   19 type  1   force =    -0.00000002   -0.00081156   -0.04838236
     atom   20 type  1   force =    -0.00000002   -0.00081150   -0.04838225
     atom   21 type  1   force =    -0.00000006   -0.04656701    0.01596629
     atom   22 type  1   force =    -0.00000003   -0.04656745    0.01596637
     atom   23 type  1   force =    -0.00000003    0.04656551    0.01596602
     atom   24 type  1   force =     0.00000001    0.04656608    0.01596612
     atom   25 type  1   force =     0.04008411   -0.02326807   -0.01598803
     atom   26 type  1   force =     0.04008360   -0.02326802   -0.01598793
     atom   27 type  1   force =    -0.04008394   -0.02326787   -0.01598789
     atom   28 type  1   force =    -0.04008384   -0.02326811   -0.01598803
     atom   29 type  1   force =    -0.04008324    0.02326801   -0.01598778
     atom   30 type  1   force =    -0.04008366    0.02326791   -0.01598771
     atom   31 type  1   force =     0.04008357    0.02326786   -0.01598766
     atom   32 type  1   force =     0.04008334    0.02326798   -0.01598778
     atom   33 type  2   force =     0.00000016    0.04502049    0.03227728
     atom   34 type  2   force =     0.00000005    0.04502160    0.03227733
     atom   35 type  2   force =     0.00000011   -0.04501878    0.03227629
     atom   36 type  2   force =     0.00000012   -0.04502116    0.03227670
     atom   37 type  2   force =     0.00000009    0.04676877    0.03211553
     atom   38 type  2   force =    -0.00000091    0.04676630    0.03211534
     atom   39 type  2   force =    -0.00000024   -0.04676251    0.03211075
     atom   40 type  2   force =     0.00000124   -0.04676665    0.03211383
     atom   41 type  2   force =    -0.00000106    0.04501934    0.03227636
     atom   42 type  2   force =     0.00000005    0.04501946    0.03227755
     atom   43 type  2   force =     0.00000057   -0.04502017    0.03227787
     atom   44 type  2   force =    -0.00000059   -0.04502046    0.03227706
     atom   45 type  2   force =    -0.00000214    0.04677205    0.03211669
     atom   46 type  2   force =     0.00000239    0.04676434    0.03211244
     atom   47 type  2   force =    -0.00000013   -0.04677372    0.03211879
     atom   48 type  2   force =     0.00000069   -0.04676567    0.03211358
     The non-local contrib.  to forces
     atom    1 type  1   force =     0.00000003   -0.00119850    0.19534567
     atom    2 type  1   force =    -0.00000001   -0.00119853    0.19534564
     atom    3 type  1   force =     0.00000001    0.00119850    0.19534566
     atom    4 type  1   force =    -0.00000002    0.00119846    0.19534563
     atom    5 type  1   force =     0.00000002    0.18519024   -0.06391871
     atom    6 type  1   force =    -0.00000002    0.18519024   -0.06391875
     atom    7 type  1   force =     0.00000001   -0.18519033   -0.06391871
     atom    8 type  1   force =    -0.00000001   -0.18519031   -0.06391868
     atom    9 type  1   force =    -0.15953907    0.09307035    0.06451955
     atom   10 type  1   force =    -0.15953906    0.09307029    0.06451953
     atom   11 type  1   force =     0.15953912    0.09307035    0.06451956
     atom   12 type  1   force =     0.15953903    0.09307033    0.06451953
     atom   13 type  1   force =     0.15953921   -0.09307040    0.06451960
     atom   14 type  1   force =     0.15953909   -0.09307036    0.06451957
     atom   15 type  1   force =    -0.15953924   -0.09307046    0.06451963
     atom   16 type  1   force =    -0.15953909   -0.09307036    0.06451957
     atom   17 type  1   force =    -0.00000003   -0.00119855    0.19534566
     atom   18 type  1   force =     0.00000002   -0.00119857    0.19534563
     atom   19 type  1   force =     0.00000003    0.00119850    0.19534562
     atom   20 type  1   force =    -0.00000004    0.00119850    0.19534563
     atom   21 type  1   force =    -0.00000004    0.18519031   -0.06391881
     atom   22 type  1   force =     0.00000001    0.18519029   -0.06391882
     atom   23 type  1   force =     0.00000003   -0.18519036   -0.06391871
     atom   24 type  1   force =    -0.00000003   -0.18519033   -0.06391871
     atom   25 type  1   force =    -0.15953894    0.09307029    0.06451947
     atom   26 type  1   force =    -0.15953917    0.09307035    0.06451954
     atom   27 type  1   force =     0.15953897    0.09307031    0.06451949
     atom   28 type  1   force =     0.15953914    0.09307035    0.06451953
     atom   29 type  1   force =     0.15953913   -0.09307031    0.06451956
     atom   30 type  1   force =     0.15953887   -0.09307027    0.06451953
     atom   31 type  1   force =    -0.15953887   -0.09307027    0.06451953
     atom   32 type  1   force =    -0.15953911   -0.09307033    0.06451958
     atom   33 type  2   force =     0.00000128   -1.16673846   -0.83808798
     atom   34 type  2   force =    -0.00000074   -1.16673772   -0.83808746
     atom   35 type  2   force =     0.00000080    1.16674038   -0.83808726
     atom   36 type  2   force =    -0.00000105    1.16673697   -0.83808552
     atom   37 type  2   force =     0.00000145   -1.17775632   -0.81682130
     atom   38 type  2   force =    -0.00000221   -1.17776034   -0.81682179
     atom   39 type  2   force =     0.00000236    1.17776261   -0.81682712
     atom   40 type  2   force =    -0.00000120    1.17775818   -0.81682420
     atom   41 type  2   force =    -0.00000242   -1.16674163   -0.83808909
     atom   42 type  2   force =     0.00000067   -1.16674069   -0.83808726
     atom   43 type  2   force =     0.00000200    1.16674052   -0.83808478
     atom   44 type  2   force =    -0.00000249    1.16673928   -0.83808572
     atom   45 type  2   force =    -0.00000035   -1.17774962   -0.81681958
     atom   46 type  2   force =     0.00000102   -1.17775965   -0.81682424
     atom   47 type  2   force =     0.00000010    1.17774916   -0.81681836
     atom   48 type  2   force =     0.00000098    1.17775939   -0.81682539
     The ionic contribution  to forces
     atom    1 type  1   force =     0.00000000   -0.00549672   -2.52565075
     atom    2 type  1   force =     0.00000000   -0.00549672   -2.52565075
     atom    3 type  1   force =    -0.00000000    0.00549672   -2.52565075
     atom    4 type  1   force =     0.00000000    0.00549672   -2.52565075
     atom    5 type  1   force =    -0.00000000   -2.39812231    0.80801239
     atom    6 type  1   force =    -0.00000000   -2.39812231    0.80801239
     atom    7 type  1   force =     0.00000000    2.39812231    0.80801239
     atom    8 type  1   force =    -0.00000000    2.39812231    0.80801239
     atom    9 type  1   force =     2.06033700   -1.20584308   -0.82059117
     atom   10 type  1   force =     2.06033700   -1.20584308   -0.82059117
     atom   11 type  1   force =    -2.06033700   -1.20584308   -0.82059117
     atom   12 type  1   force =    -2.06033700   -1.20584308   -0.82059117
     atom   13 type  1   force =    -2.06033700    1.20584308   -0.82059117
     atom   14 type  1   force =    -2.06033700    1.20584308   -0.82059117
     atom   15 type  1   force =     2.06033700    1.20584308   -0.82059117
     atom   16 type  1   force =     2.06033700    1.20584308   -0.82059117
     atom   17 type  1   force =     0.00000000   -0.00549672   -2.52565075
     atom   18 type  1   force =     0.00000000   -0.00549672   -2.52565075
     atom   19 type  1   force =    -0.00000000    0.00549672   -2.52565075
     atom   20 type  1   force =    -0.00000000    0.00549672   -2.52565075
     atom   21 type  1   force =    -0.00000000   -2.39812231    0.80801239
     atom   22 type  1   force =    -0.00000000   -2.39812231    0.80801239
     atom   23 type  1   force =    -0.00000000    2.39812231    0.80801239
     atom   24 type  1   force =     0.00000000    2.39812231    0.80801239
     atom   25 type  1   force =     2.06033700   -1.20584308   -0.82059117
     atom   26 type  1   force =     2.06033700   -1.20584308   -0.82059117
     atom   27 type  1   force =    -2.06033700   -1.20584308   -0.82059117
     atom   28 type  1   force =    -2.06033700   -1.20584308   -0.82059117
     atom   29 type  1   force =    -2.06033700    1.20584308   -0.82059117
     atom   30 type  1   force =    -2.06033700    1.20584308   -0.82059117
     atom   31 type  1   force =     2.06033700    1.20584308   -0.82059117
     atom   32 type  1   force =     2.06033700    1.20584308   -0.82059117
     atom   33 type  2   force =    -0.00000000    2.30723585    1.64901220
     atom   34 type  2   force =     0.00000000    2.30723585    1.64901220
     atom   35 type  2   force =     0.00000000   -2.30723585    1.64901220
     atom   36 type  2   force =     0.00000000   -2.30723585    1.64901220
     atom   37 type  2   force =     0.00000000    2.36846476    1.70980850
     atom   38 type  2   force =     0.00000000    2.36846476    1.70980850
     atom   39 type  2   force =    -0.00000000   -2.36846476    1.70980850
     atom   40 type  2   force =     0.00000000   -2.36846476    1.70980850
     atom   41 type  2   force =    -0.00000000    2.30723585    1.64901220
     atom   42 type  2   force =    -0.00000000    2.30723585    1.64901220
     atom   43 type  2   force =    -0.00000000   -2.30723585    1.64901220
     atom   44 type  2   force =     0.00000000   -2.30723585    1.64901220
     atom   45 type  2   force =    -0.00000000    2.36846476    1.70980850
     atom   46 type  2   force =     0.00000000    2.36846476    1.70980850
     atom   47 type  2   force =     0.00000000   -2.36846476    1.70980850
     atom   48 type  2   force =     0.00000000   -2.36846476    1.70980850
     The local contribution  to forces
     atom    1 type  1   force =     0.00000033    0.00750948    2.28193110
     atom    2 type  1   force =    -0.00000008    0.00750913    2.28192757
     atom    3 type  1   force =     0.00000012   -0.00750945    2.28193084
     atom    4 type  1   force =    -0.00000023   -0.00750981    2.28193124
     atom    5 type  1   force =     0.00000027    2.16639092   -0.72814824
     atom    6 type  1   force =    -0.00000011    2.16638723   -0.72814754
     atom    7 type  1   force =     0.00000005   -2.16639030   -0.72814758
     atom    8 type  1   force =    -0.00000012   -2.16639082   -0.72814771
     atom    9 type  1   force =    -1.86072794    1.08951572    0.74007525
     atom   10 type  1   force =    -1.86072910    1.08951586    0.74007544
     atom   11 type  1   force =     1.86072823    1.08951562    0.74007529
     atom   12 type  1   force =     1.86072869    1.08951614    0.74007544
     atom   13 type  1   force =     1.86073050   -1.08951687    0.74007633
     atom   14 type  1   force =     1.86072846   -1.08951624    0.74007590
     atom   15 type  1   force =    -1.86073025   -1.08951717    0.74007642
     atom   16 type  1   force =    -1.86072872   -1.08951611    0.74007590
     atom   17 type  1   force =    -0.00000026    0.00750885    2.28192547
     atom   18 type  1   force =     0.00000025    0.00750891    2.28192372
     atom   19 type  1   force =     0.00000033   -0.00750907    2.28193061
     atom   20 type  1   force =    -0.00000033   -0.00750928    2.28193008
     atom   21 type  1   force =    -0.00000026    2.16638525   -0.72814717
     atom   22 type  1   force =     0.00000013    2.16638333   -0.72814663
     atom   23 type  1   force =     0.00000041   -2.16638967   -0.72814757
     atom   24 type  1   force =    -0.00000036   -2.16638938   -0.72814739
     atom   25 type  1   force =    -1.86072929    1.08951663    0.74007559
     atom   26 type  1   force =    -1.86072975    1.08951612    0.74007532
     atom   27 type  1   force =     1.86072896    1.08951637    0.74007544
     atom   28 type  1   force =     1.86073009    1.08951649    0.74007553
     atom   29 type  1   force =     1.86072861   -1.08951545    0.74007573
     atom   30 type  1   force =     1.86072793   -1.08951616    0.74007611
     atom   31 type  1   force =    -1.86072794   -1.08951606    0.74007603
     atom   32 type  1   force =    -1.86072856   -1.08951558    0.74007583
     atom   33 type  2   force =     0.00000352   -1.12057972   -0.79666345
     atom   34 type  2   force =     0.00000006   -1.12058305   -0.79666807
     atom   35 type  2   force =     0.00000008    1.12058102   -0.79666236
     atom   36 type  2   force =    -0.00000073    1.12057781   -0.79666278
     atom   37 type  2   force =    -0.00000254   -1.16918696   -0.87838793
     atom   38 type  2   force =    -0.00000149   -1.16918915   -0.87838884
     atom   39 type  2   force =     0.00000301    1.16918992   -0.87838676
     atom   40 type  2   force =    -0.00000161    1.16918728   -0.87838258
     atom   41 type  2   force =    -0.00000219   -1.12058457   -0.79666995
     atom   42 type  2   force =     0.00000305   -1.12058506   -0.79667114
     atom   43 type  2   force =     0.00000382    1.12058242   -0.79666206
     atom   44 type  2   force =    -0.00000331    1.12058176   -0.79666190
     atom   45 type  2   force =     0.00000160   -1.16918880   -0.87838893
     atom   46 type  2   force =    -0.00000230   -1.16919366   -0.87839263
     atom   47 type  2   force =    -0.00000147    1.16918375   -0.87837729
     atom   48 type  2   force =     0.00000040    1.16919292   -0.87838095
     The core correction contribution to forces
     atom    1 type  1   force =     0.00000000    0.00000000    0.00000000
     atom    2 type  1   force =     0.00000000    0.00000000    0.00000000
     atom    3 type  1   force =     0.00000000    0.00000000    0.00000000
     atom    4 type  1   force =     0.00000000    0.00000000    0.00000000
     atom    5 type  1   force =     0.00000000    0.00000000    0.00000000
     atom    6 type  1   force =     0.00000000    0.00000000    0.00000000
     atom    7 type  1   force =     0.00000000    0.00000000    0.00000000
     atom    8 type  1   force =     0.00000000    0.00000000    0.00000000
     atom    9 type  1   force =     0.00000000    0.00000000    0.00000000
     atom   10 type  1   force =     0.00000000    0.00000000    0.00000000
     atom   11 type  1   force =     0.00000000    0.00000000    0.00000000
     atom   12 type  1   force =     0.00000000    0.00000000    0.00000000
     atom   13 type  1   force =     0.00000000    0.00000000    0.00000000
     atom   14 type  1   force =     0.00000000    0.00000000    0.00000000
     atom   15 type  1   force =     0.00000000    0.00000000    0.00000000
     atom   16 type  1   force =     0.00000000    0.00000000    0.00000000
     atom   17 type  1   force =     0.00000000    0.00000000    0.00000000
     atom   18 type  1   force =     0.00000000    0.00000000    0.00000000
     atom   19 type  1   force =     0.00000000    0.00000000    0.00000000
     atom   20 type  1   force =     0.00000000    0.00000000    0.00000000
     atom   21 type  1   force =     0.00000000    0.00000000    0.00000000
     atom   22 type  1   force =     0.00000000    0.00000000    0.00000000
     atom   23 type  1   force =     0.00000000    0.00000000    0.00000000
     atom   24 type  1   force =     0.00000000    0.00000000    0.00000000
     atom   25 type  1   force =     0.00000000    0.00000000    0.00000000
     atom   26 type  1   force =     0.00000000    0.00000000    0.00000000
     atom   27 type  1   force =     0.00000000    0.00000000    0.00000000
     atom   28 type  1   force =     0.00000000    0.00000000    0.00000000
     atom   29 type  1   force =     0.00000000    0.00000000    0.00000000
     atom   30 type  1   force =     0.00000000    0.00000000    0.00000000
     atom   31 type  1   force =     0.00000000    0.00000000    0.00000000
     atom   32 type  1   force =     0.00000000    0.00000000    0.00000000
     atom   33 type  2   force =    -0.00000045    0.02514740    0.01803455
     atom   34 type  2   force =     0.00000050    0.02514739    0.01803450
     atom   35 type  2   force =    -0.00000004   -0.02514744    0.01803451
     atom   36 type  2   force =     0.00000003   -0.02514739    0.01803444
     atom   37 type  2   force =    -0.00000012    0.02526701    0.01751594
     atom   38 type  2   force =     0.00000008    0.02526715    0.01751599
     atom   39 type  2   force =    -0.00000243   -0.02526709    0.01751610
     atom   40 type  2   force =     0.00000242   -0.02526705    0.01751612
     atom   41 type  2   force =     0.00000004    0.02514752    0.01803454
     atom   42 type  2   force =     0.00000003    0.02514751    0.01803448
     atom   43 type  2   force =    -0.00000048   -0.02514747    0.01803444
     atom   44 type  2   force =     0.00000049   -0.02514744    0.01803447
     atom   45 type  2   force =    -0.00000235    0.02526674    0.01751587
     atom   46 type  2   force =     0.00000232    0.02526694    0.01751595
     atom   47 type  2   force =    -0.00000003   -0.02526683    0.01751604
     atom   48 type  2   force =    -0.00000003   -0.02526702    0.01751624
     The Hubbard contrib.    to forces
     atom    1 type  1   force =     0.00000000    0.00000000    0.00000000
     atom    2 type  1   force =     0.00000000    0.00000000    0.00000000
     atom    3 type  1   force =     0.00000000    0.00000000    0.00000000
     atom    4 type  1   force =     0.00000000    0.00000000    0.00000000
     atom    5 type  1   force =     0.00000000    0.00000000    0.00000000
     atom    6 type  1   force =     0.00000000    0.00000000    0.00000000
     atom    7 type  1   force =     0.00000000    0.00000000    0.00000000
     atom    8 type  1   force =     0.00000000    0.00000000    0.00000000
     atom    9 type  1   force =     0.00000000    0.00000000    0.00000000
     atom   10 type  1   force =     0.00000000    0.00000000    0.00000000
     atom   11 type  1   force =     0.00000000    0.00000000    0.00000000
     atom   12 type  1   force =     0.00000000    0.00000000    0.00000000
     atom   13 type  1   force =     0.00000000    0.00000000    0.00000000
     atom   14 type  1   force =     0.00000000    0.00000000    0.00000000
     atom   15 type  1   force =     0.00000000    0.00000000    0.00000000
     atom   16 type  1   force =     0.00000000    0.00000000    0.00000000
     atom   17 type  1   force =     0.00000000    0.00000000    0.00000000
     atom   18 type  1   force =     0.00000000    0.00000000    0.00000000
     atom   19 type  1   force =     0.00000000    0.00000000    0.00000000
     atom   20 type  1   force =     0.00000000    0.00000000    0.00000000
     atom   21 type  1   force =     0.00000000    0.00000000    0.00000000
     atom   22 type  1   force =     0.00000000    0.00000000    0.00000000
     atom   23 type  1   force =     0.00000000    0.00000000    0.00000000
     atom   24 type  1   force =     0.00000000    0.00000000    0.00000000
     atom   25 type  1   force =     0.00000000    0.00000000    0.00000000
     atom   26 type  1   force =     0.00000000    0.00000000    0.00000000
     atom   27 type  1   force =     0.00000000    0.00000000    0.00000000
     atom   28 type  1   force =     0.00000000    0.00000000    0.00000000
     atom   29 type  1   force =     0.00000000    0.00000000    0.00000000
     atom   30 type  1   force =     0.00000000    0.00000000    0.00000000
     atom   31 type  1   force =     0.00000000    0.00000000    0.00000000
     atom   32 type  1   force =     0.00000000    0.00000000    0.00000000
     atom   33 type  2   force =     0.00000000    0.00000000    0.00000000
     atom   34 type  2   force =     0.00000000    0.00000000    0.00000000
     atom   35 type  2   force =     0.00000000    0.00000000    0.00000000
     atom   36 type  2   force =     0.00000000    0.00000000    0.00000000
     atom   37 type  2   force =     0.00000000    0.00000000    0.00000000
     atom   38 type  2   force =     0.00000000    0.00000000    0.00000000
     atom   39 type  2   force =     0.00000000    0.00000000    0.00000000
     atom   40 type  2   force =     0.00000000    0.00000000    0.00000000
     atom   41 type  2   force =     0.00000000    0.00000000    0.00000000
     atom   42 type  2   force =     0.00000000    0.00000000    0.00000000
     atom   43 type  2   force =     0.00000000    0.00000000    0.00000000
     atom   44 type  2   force =     0.00000000    0.00000000    0.00000000
     atom   45 type  2   force =     0.00000000    0.00000000    0.00000000
     atom   46 type  2   force =     0.00000000    0.00000000    0.00000000
     atom   47 type  2   force =     0.00000000    0.00000000    0.00000000
     atom   48 type  2   force =     0.00000000    0.00000000    0.00000000
     The SCF correction term to forces
     atom    1 type  1   force =    -0.00000035   -0.00000262   -0.00002354
     atom    2 type  1   force =     0.00000009   -0.00000237   -0.00002134
     atom    3 type  1   force =    -0.00000009    0.00000255   -0.00002418
     atom    4 type  1   force =     0.00000023    0.00000293   -0.00002441
     atom    5 type  1   force =    -0.00000032   -0.00002494    0.00000447
     atom    6 type  1   force =     0.00000010   -0.00002193    0.00000390
     atom    7 type  1   force =    -0.00000004    0.00002436    0.00000375
     atom    8 type  1   force =     0.00000010    0.00002462    0.00000382
     atom    9 type  1   force =     0.00001328   -0.00001074   -0.00000756
     atom   10 type  1   force =     0.00001477   -0.00001116   -0.00000789
     atom   11 type  1   force =    -0.00001340   -0.00001058   -0.00000758
     atom   12 type  1   force =    -0.00001442   -0.00001138   -0.00000790
     atom   13 type  1   force =    -0.00001552    0.00001178   -0.00000862
     atom   14 type  1   force =    -0.00001373    0.00001122   -0.00000825
     atom   15 type  1   force =     0.00001514    0.00001197   -0.00000864
     atom   16 type  1   force =     0.00001403    0.00001106   -0.00000827
     atom   17 type  1   force =     0.00000029   -0.00000213   -0.00002000
     atom   18 type  1   force =    -0.00000027   -0.00000234   -0.00001842
     atom   19 type  1   force =    -0.00000036    0.00000214   -0.00002415
     atom   20 type  1   force =     0.00000036    0.00000240   -0.00002353
     atom   21 type  1   force =     0.00000026   -0.00002040    0.00000357
     atom   22 type  1   force =    -0.00000016   -0.00001891    0.00000311
     atom   23 type  1   force =    -0.00000046    0.00002307    0.00000358
     atom   24 type  1   force =     0.00000041    0.00002333    0.00000351
     atom   25 type  1   force =     0.00001535   -0.00001205   -0.00000824
     atom   26 type  1   force =     0.00001553   -0.00001156   -0.00000794
     atom   27 type  1   force =    -0.00001486   -0.00001163   -0.00000797
     atom   28 type  1   force =    -0.00001606   -0.00001201   -0.00000824
     atom   29 type  1   force =    -0.00001398    0.00001055   -0.00000822
     atom   30 type  1   force =    -0.00001345    0.00001112   -0.00000850
     atom   31 type  1   force =     0.00001339    0.00001096   -0.00000836
     atom   32 type  1   force =     0.00001402    0.00001066   -0.00000833
     atom   33 type  2   force =    -0.00000418   -0.00004473   -0.00003437
     atom   34 type  2   force =     0.00000024   -0.00004102   -0.00003016
     atom   35 type  2   force =    -0.00000071    0.00004297   -0.00003713
     atom   36 type  2   force =     0.00000188    0.00004716   -0.00003795
     atom   37 type  2   force =     0.00000131   -0.00001986   -0.00001599
     atom   38 type  2   force =     0.00000272   -0.00001626   -0.00001483
     atom   39 type  2   force =    -0.00000317    0.00001666   -0.00001629
     atom   40 type  2   force =     0.00000164    0.00001956   -0.00002033
     atom   41 type  2   force =     0.00000351   -0.00003798   -0.00002766
     atom   42 type  2   force =    -0.00000369   -0.00003831   -0.00002704
     atom   43 type  2   force =    -0.00000476    0.00004007   -0.00003825
     atom   44 type  2   force =     0.00000473    0.00004164   -0.00003831
     atom   45 type  2   force =    -0.00000102   -0.00002118   -0.00001549
     atom   46 type  2   force =     0.00000137   -0.00001419   -0.00001145
     atom   47 type  2   force =     0.00000128    0.00002482   -0.00002642
     atom   48 type  2   force =    -0.00000065    0.00001364   -0.00002113

     Total force =     0.356195     Total SCF correction =     0.000209


     Computing stress (Cartesian axis) and pressure

          total   stress  (Ry/bohr**3)                   (kbar)     P=       60.35
   0.00040618  -0.00000000  -0.00000000           59.75       -0.00       -0.00
  -0.00000000   0.00041971  -0.00000000           -0.00       61.74       -0.00
  -0.00000000  -0.00000000   0.00040490           -0.00       -0.00       59.56


     init_run     :      3.10s CPU      3.38s WALL (       1 calls)
     electrons    :     71.03s CPU     72.43s WALL (       1 calls)
     forces       :      2.00s CPU      2.06s WALL (       1 calls)
     stress       :     33.32s CPU     33.72s WALL (       1 calls)

     Called by init_run:
     wfcinit      :      2.43s CPU      2.57s WALL (       1 calls)
     potinit      :      0.34s CPU      0.38s WALL (       1 calls)
     hinit0       :      0.18s CPU      0.25s WALL (       1 calls)

     Called by electrons:
     c_bands      :     63.88s CPU     65.10s WALL (       9 calls)
     sum_band     :      6.57s CPU      6.68s WALL (       9 calls)
     v_of_rho     :      0.47s CPU      0.52s WALL (      10 calls)
     mix_rho      :      0.05s CPU      0.06s WALL (       9 calls)

     Called by c_bands:
     init_us_2    :      2.43s CPU      2.47s WALL (     588 calls)
     init_us_2:cp :      2.43s CPU      2.47s WALL (     588 calls)
     cegterg      :     56.26s CPU     57.38s WALL (     252 calls)

     Called by *egterg:
     cdiaghg      :      6.22s CPU      6.38s WALL (    1170 calls)
     h_psi        :     41.53s CPU     42.39s WALL (    1198 calls)
     g_psi        :      0.14s CPU      0.14s WALL (     918 calls)

     Called by h_psi:
     h_psi:calbec :      6.51s CPU      6.72s WALL (    1198 calls)
     vloc_psi     :     28.92s CPU     29.46s WALL (    1198 calls)
     add_vuspsi   :      5.64s CPU      5.71s WALL (    1198 calls)

     General routines
     calbec       :      7.59s CPU      7.85s WALL (    1338 calls)
     fft          :      0.24s CPU      0.37s WALL (     142 calls)
     ffts         :      0.01s CPU      0.03s WALL (      19 calls)
     fftw         :     28.99s CPU     29.50s WALL (  130032 calls)
     interpolate  :      0.03s CPU      0.05s WALL (      10 calls)

     Parallel routines

     PWSCF        :   1m49.50s CPU   1m51.86s WALL


   This run was terminated on:   0:14:28  28Jan2025            

=------------------------------------------------------------------------------=
   JOB DONE.
=------------------------------------------------------------------------------=
Note: The following floating-point exceptions are signalling: IEEE_INVALID_FLAG
Note: The following floating-point exceptions are signalling: IEEE_INVALID_FLAG
Note: The following floating-point exceptions are signalling: IEEE_INVALID_FLAG
Note: The following floating-point exceptions are signalling: IEEE_INVALID_FLAG
