48
Lattice="8.4801444672 0.0 0.0 -0.0 7.3754905448 0.0 0.0 0.0 6.9263525464" Properties=species:S:1:pos:R:3:forces:R:3 energy=-7702.6330202255795 pbc="T T T"
H        2.12003612       1.20935373       2.07304492       0.00000026       0.02087171      -1.24393137
H        6.36010835       1.20935373       2.07304492      -0.00000026       0.02086837      -1.24396582
H       -0.00000000       2.47839155       5.53622119       0.00000051      -0.02086528      -1.24395425
H        4.24007223       2.47839155       5.53622119      -0.00000077      -0.02086528      -1.24395091
H        2.12003612       0.29155513       3.34918015      -0.00000077      -1.19725889       0.41050843
H        6.36010835       0.29155513       3.34918015      -0.00000077      -1.19727663       0.41051074
H       -0.00000000       3.39619014       6.81235642       0.00000000       1.19726531       0.41050688
H        4.24007223       3.39619014       6.81235642      -0.00000129       1.19725914       0.41050611
H        0.78439278       1.97571871       3.58153074       1.03058242      -0.59823426      -0.41105839
H        5.02446501       1.97571871       3.58153074       1.03059116      -0.59824301      -0.41106224
H        3.45567946       1.97571871       3.58153074      -1.03057702      -0.59823272      -0.41105736
H        7.69575169       1.97571871       3.58153074      -1.03059399      -0.59824043      -0.41106250
H        1.33564334       1.71202656       0.11835446      -1.03057111       0.59823761      -0.41105633
H        5.57571557       1.71202656       0.11835446      -1.03058036       0.59824069      -0.41105890
H        2.90442889       1.71202656       0.11835446       1.03056648       0.59823349      -0.41105376
H        7.14450113       1.71202656       0.11835446       1.03058114       0.59823992      -0.41105941
H       -0.00000000       4.89709900       2.07304492      -0.00000051       0.02086708      -1.24398511
H        4.24007223       4.89709900       2.07304492      -0.00000026       0.02086245      -1.24398999
H        2.12003612       6.16613682       5.53622119      -0.00000051      -0.02086605      -1.24396094
H        6.36010835       6.16613682       5.53622119      -0.00000051      -0.02086451      -1.24395811
H       -0.00000000       3.97930041       3.34918015      -0.00000154      -1.19728640       0.41050997
H        4.24007223       3.97930041       3.34918015      -0.00000077      -1.19729771       0.41051203
H        2.12003612       7.08393541       6.81235642      -0.00000077       1.19724783       0.41050303
H        6.36010835       7.08393541       6.81235642       0.00000026       1.19726249       0.41050560
H        2.90442889       5.66346398       3.58153074       1.03060428      -0.59824635      -0.41106893
H        7.14450113       5.66346398       3.58153074       1.03059116      -0.59824506      -0.41106636
H        1.33564334       5.66346398       3.58153074      -1.03059990      -0.59824121      -0.41106533
H        5.57571557       5.66346398       3.58153074      -1.03059733      -0.59824738      -0.41106893
H        3.45567946       5.39977183       0.11835446      -1.03058191       0.59824481      -0.41106250
H        7.69575169       5.39977183       0.11835446      -1.03059271       0.59824223      -0.41106070
H        0.78439278       5.39977183       0.11835446       1.03059039       0.59824095      -0.41105941
H        5.02446501       5.39977183       0.11835446       1.03058448       0.59824403      -0.41106250
O        2.12003612       1.21944362       3.04889734       0.00000411       1.15752375       0.82988253
O        6.36010835       1.21944362       3.04889734       0.00000129       1.15755229       0.82988382
O       -0.00000000       2.46830165       6.51207362       0.00000283      -1.15747979       0.82985708
O        4.24007223       2.46830165       6.51207362       0.00000309      -1.15754098       0.82986762
O       -0.00000000       2.45221320       3.91200371       0.00000231       1.20247386       0.82572377
O        4.24007223       2.45221320       3.91200371      -0.00002340       1.20241035       0.82571889
O        2.12003612       1.23553207       0.44882744      -0.00000617      -1.20231291       0.82560087
O        6.36010835       1.23553207       0.44882744       0.00003188      -1.20241935       0.82568006
O       -0.00000000       4.90718889       3.04889734      -0.00002725       1.15749419       0.82985888
O        4.24007223       4.90718889       3.04889734       0.00000129       1.15749727       0.82988948
O        2.12003612       6.15604693       6.51207362       0.00001466      -1.15751553       0.82989770
O        6.36010835       6.15604693       6.51207362      -0.00001517      -1.15752298       0.82987688
O        2.12003612       6.13995847       3.91200371      -0.00005502       1.20255819       0.82575360
O        6.36010835       6.13995847       3.91200371       0.00006145       1.20235996       0.82564433
O       -0.00000000       4.92327734       0.44882744      -0.00000334      -1.20260113       0.82580759
O        4.24007223       4.92327734       0.44882744       0.00001774      -1.20239415       0.82567364
48
Lattice="8.4801444672 0.0 0.0 -0.0 7.3754905448 0.0 0.0 0.0 6.9263525464" Properties=species:S:1:pos:R:3:forces:R:3 energy=-7702.52100206492 pbc="T T T"
H        2.10807677       1.20095530       2.07672452       0.03305283       0.10971699      -1.08255061
H        6.36685639       1.20841906       2.07382199      -0.02511378      -0.03378868      -1.52658572
H       -0.00535318       2.46825229       5.53585961       0.01623395       0.03299267      -0.80607128
H        4.24397233       2.47668434       5.53698258      -0.01815740      -0.05226952      -1.26768323
H        2.12103007       0.29452467       3.35047676      -0.01452185      -1.20534398       0.49535590
H        6.37282427       0.28038550       3.35693888      -0.04795392      -0.61091624       0.15704202
H       -0.00313843       3.39219003       6.81534918       0.01770977       1.51547212       0.47309990
H        4.24010937       3.39499267       6.80405507      -0.00406980       1.14374521       0.45305172
H        0.78593321       1.97691136       3.58327744       0.98412745      -0.53826480      -0.35806587
H        5.00976683       1.97945454       3.58929718       1.56127095      -0.91544554      -0.65599926
H        3.45485254       1.97133646       3.58574876      -1.17696182      -0.66147109      -0.48821568
H        7.70904561       1.97943568       3.57928330      -1.54278188      -0.86264792      -0.60134864
H        1.33600752       1.71012330       0.12182829      -1.21858542       0.74208472      -0.49027745
H        5.56517097       1.70480569       0.12901096      -0.83431589       0.52749933      -0.35662554
H        2.91520877       1.70827996       0.11206820       0.40150493       0.25742076      -0.13763558
H        7.14308983       1.71622907       0.12162231       0.88763391       0.53584590      -0.36277742
H       -0.00308125       4.89300633       2.07334052       0.02399586       0.12051614      -1.04213979
H        4.23783907       4.90018119       2.08379349      -0.00929737       0.05085182      -1.43525547
H        2.12045700       6.16729817       5.53885850       0.00054687      -0.05860704      -0.67236023
H        6.36403205       6.16990059       5.53089660      -0.02800498      -0.07136614      -0.64483013
H       -0.00053070       3.98276503       3.33943637       0.00581018      -1.26909040       0.53173497
H        4.23939544       3.97948874       3.34839905      -0.01538472      -1.16092481       0.42270832
H        2.11310482       7.08501626       6.81793891       0.00756419       1.29682387       0.48414691
H        6.35437728       7.08208930       6.80299664       0.01528110       1.79999670       0.65381897
H        2.90829433       5.67828405       3.59100850       0.96144594      -0.61459780      -0.40393386
H        7.12537563       5.66637979       3.57676216       1.61422670      -0.88999058      -0.59033249
H        1.33490968       5.66566449       3.58417525      -1.03484171      -0.63684994      -0.42840691
H        5.57498787       5.67110119       3.57009965      -1.09023693      -0.56740724      -0.35326742
H        3.45423280       5.39554255       0.12615573      -1.23024693       0.87345555      -0.57594408
H        7.70129107       5.39667085       0.12163161      -1.28629468       0.76987399      -0.49144473
H        0.78215668       5.40495091       0.12395637       1.15403554       0.65441264      -0.43805832
H        5.02994557       5.40020903       0.12968540       1.41025174       0.97533659      -0.66925202
O        2.12635885       1.22438378       3.05749103      -0.06457071       1.08060171       0.56353130
O        6.34531102       1.21819428       3.04202488       0.09006398       0.60932472       1.42868630
O        0.00940473       2.47092022       6.52217178      -0.08172126      -1.51062508       0.24542939
O        4.23314117       2.46254381       6.51249455      -0.02105066      -1.02401171       0.81537354
O       -0.00284953       2.45421472       3.91024304       0.53491979       1.36112873       1.00277207
O        4.23590777       2.45752531       3.89877797      -0.34694327       1.61742309       1.17831756
O        2.11099924       1.23140990       0.45328643       0.86434484      -0.98275320       0.68752640
O        6.35934897       1.23287581       0.45263645      -0.00978665      -0.99070305       0.67350746
O        0.00549304       4.91224537       3.05462229      -0.02898792       1.15946648       0.48251246
O        4.23219690       4.91110930       3.05505301       0.05156041       1.12813320       0.95695705
O        2.12671733       6.15593020       6.52949110      -0.06639363      -1.25614797       0.11345409
O        6.35445257       6.16424713       6.52082336       0.08339248      -1.78044499      -0.06986539
O        2.11566345       6.14465138       3.91906123       0.07614094       1.24120729       0.88123597
O        6.35990790       6.13947877       3.91275628      -0.51348321       1.46154527       1.01634390
O        0.00042516       4.92918439       0.45401577       0.11415369      -1.41970697       0.96151562
O        4.24610679       4.94038237       0.44349449      -0.19956217      -1.95150082       1.27080558
48
Lattice="8.4801444672 0.0 0.0 -0.0 7.3754905448 0.0 0.0 0.0 6.9263525464" Properties=species:S:1:pos:R:3:forces:R:3 energy=-7702.536835832024 pbc="T T T"
H        2.13189344       1.21372823       2.07702472      -0.01307972      -0.03820635      -2.04551427
H        6.35375979       1.22375967       2.07776919       0.04292459      -0.01382508      -1.20672569
H        0.00745975       2.47557536       5.52529769      -0.00477660      -0.00895541      -0.71837811
H        4.24136568       2.47635457       5.53551366       0.02358834      -0.13177347      -0.85962481
H        2.12581400       0.29473402       3.34352158      -0.01305427      -1.46353376       0.44975299
H        6.35855719       0.28956334       3.34953005       0.01605295      -1.09448953       0.35811421
H       -0.00135578       3.39842941       6.81259168       0.00585440       1.23209092       0.39485991
H        4.25005871       3.38501546       6.80707968      -0.03081880       1.29182436       0.52788525
H        0.78282667       1.97291314       3.58389473       1.41286681      -0.88056183      -0.63437602
H        5.02077838       1.96116308       3.57418675       1.05539281      -0.45157668      -0.27488859
H        3.46397605       1.96529418       3.57800752      -0.76670922      -0.28872936      -0.17974025
H        7.68376516       1.96455028       3.58939918      -0.57973491      -0.38379697      -0.28481588
H        1.34094491       1.70231859       0.12976440      -1.47994486       0.94412338      -0.64185845
H        5.57530529       1.72260419       0.10872602      -0.56477134       0.26426530      -0.19678384
H        2.90640316       1.71030357       0.12047652       1.20059387       0.76476675      -0.53415643
H        7.15689769       1.71629495       0.12050910       0.77662494       0.41206729      -0.29852424
H       -0.00513116       4.90638878       2.06007962       0.01412822      -0.07451574      -0.65554906
H        4.23710352       4.90018784       2.07707441      -0.00782773       0.02715318      -1.41813166
H        2.12184901       6.17100557       5.54104368      -0.00484370       0.03872340      -1.61762750
H        6.36077804       6.16621261       5.53545291      -0.00376538       0.04924873      -1.51042582
H       -0.00263223       3.97816883       3.35931827       0.01573027      -1.11258445       0.27539561
H        4.23267547       3.98847171       3.34197806       0.02484998      -1.61630775       0.57580858
H        2.11625791       7.08452315       6.81589310       0.00470512       1.57059557       0.47577000
H        6.36042536       7.08186081       6.81141991       0.00710062       1.77870770       0.52839896
H        2.90937317       5.66795595       3.58521599       0.82070729      -0.40380581      -0.27234679
H        7.14576857       5.66088400       3.58344156       1.10487114      -0.67030257      -0.47049692
H        1.34720167       5.66157161       3.58406322      -0.99902237      -0.48476655      -0.33851313
H        5.57323306       5.66362142       3.58049491      -1.02329643      -0.64419507      -0.43360877
H        3.45194047       5.40297163       0.12157025      -1.11555742       0.68444159      -0.48372396
H        7.69404860       5.40106786       0.11691711      -1.01740268       0.63107215      -0.43471666
H        0.78373152       5.39944618       0.11763019       1.14068071       0.70661325      -0.48282768
H        5.02200474       5.39344727       0.12279838       1.04346802       0.66992694      -0.45565856
O        2.11615607       1.21269486       3.03397999       0.11536699       1.49508327       1.64719442
O        6.36382283       1.22332701       3.05633321      -0.03238229       1.02941308       0.77508587
O        0.00026634       2.47171271       6.51474336      -0.02917458      -1.23481475       0.28284281
O        4.24630800       2.45545703       6.52275829       0.04302897      -1.11873582       0.29675712
O        0.00839611       2.44156689       3.91057582      -0.88843044       1.30952693       0.94989911
O        4.24963223       2.45053509       3.92665265      -0.39046255       0.77446392       0.49105470
O        2.12319812       1.24246518       0.44511789       0.27275920      -1.69988766       1.15563682
O        6.36611602       1.22864939       0.44626052      -0.22063957      -0.64699937       0.59009363
O       -0.00072781       4.90558422       3.05085316       0.03743939       1.13768357       0.33359256
O        4.23995361       4.90736638       3.04901212      -0.04235612       1.55288555       0.82111275
O        2.11252496       6.16897766       6.50788219       0.01546545      -1.61404826       1.19035573
O        6.36052985       6.16995793       6.50404717      -0.00975683      -1.88758342       1.00815185
O        2.12342931       6.15195701       3.92274777       0.15848853       0.84488673       0.56111137
O        6.35998511       6.13455445       3.90794014      -0.06208883       1.35214452       0.88068138
O        0.00043811       4.92560210       0.44307695      -0.15914261      -1.27526362       0.96409469
O        4.23283121       4.92328603       0.44475120       0.10635039      -1.32244981       0.91536352
48
Lattice="8.4801444672 0.0 0.0 -0.0 7.3754905448 0.0 0.0 0.0 6.9263525464" Properties=species:S:1:pos:R:3:forces:R:3 energy=-7702.448605873748 pbc="T T T"
H        2.11642057       1.20151937       2.06858896       0.00609815       0.01846927      -1.15111168
H        6.37656530       1.20588778       2.08276528      -0.02653971       0.00986636      -2.23330105
H        0.00785585       2.46821655       5.52265153      -0.02400100      -0.00365560      -1.07176123
H        4.23103258       2.48769606       5.53364722       0.00000154       0.01860040      -1.16801669
H        2.10848634       0.28931075       3.35626902       0.04073195      -0.90909646       0.30117710
H        6.36707579       0.28465522       3.34955776       0.02541819      -0.89913394       0.28899367
H        0.00072449       3.39495937       6.80752818       0.00884537       0.72341233       0.25267707
H        4.22646940       3.39455237       6.81910470       0.03392932       1.71339496       0.52266411
H        0.78013937       1.97466938       3.58012948       1.12930897      -0.61773686      -0.44830340
H        5.02052397       1.98132537       3.58566416       1.03886395      -0.64043868      -0.46057014
H        3.45518527       1.97499001       3.58297532      -1.43900748      -0.88342861      -0.62677172
H        7.70022564       1.98244416       3.57723310      -1.25504034      -0.72067205      -0.48966039
H        1.33501271       1.70080000       0.12357228      -1.25830976       0.76540258      -0.53016274
H        5.57052433       1.72334829       0.11512757      -0.77561629       0.45025590      -0.28839871
H        2.90430232       1.72277114       0.12951507       0.94185361       0.55101953      -0.40954118
H        7.13709575       1.71917425       0.11494224       1.31061553       0.74204898      -0.54460386
H       -0.01091059       4.89318792       2.08768508       0.04604411      -0.00469561      -2.65892242
H        4.22611988       4.88833092       2.07905832       0.02266994       0.06475378      -1.54954080
H        2.11595710       6.17047939       5.54122404       0.02416195      -0.13060541      -1.35564688
H        6.37117128       6.17384283       5.54534135       0.00409757      -0.05328357      -1.65606628
H        0.00060466       3.97911234       3.34982074      -0.00290715      -1.08838882       0.33923279
H        4.24531360       3.98539121       3.35116177      -0.02410436      -1.31367566       0.46747870
H        2.11840041       7.08581473       6.79399030       0.01713487       1.16184732       0.53978149
H        6.36140142       7.08504685       6.81248173       0.00078522       1.08819316       0.42854807
H        2.90248650       5.66127550       3.58351300       1.34130449      -0.79219246      -0.55313067
H        7.14324034       5.66201724       3.58082046       1.26516175      -0.69349574      -0.50714158
H        1.32783488       5.65388049       3.58480662      -0.52702007      -0.30174634      -0.24789842
H        5.57347892       5.66595587       3.58057540      -0.45861353      -0.20326611      -0.16185230
H        3.46089403       5.38804030       0.10646346      -1.36525356       0.83529291      -0.52891215
H        7.69371149       5.40864888       0.11499710      -0.47833699       0.26651193      -0.18309168
H        0.77931150       5.38684704       0.11626157       1.77908590       1.06422969      -0.71497500
H        5.02903888       5.40094661       0.11280847       0.73737626       0.42012693      -0.28799685
O        2.12247816       1.22157024       3.04655054      -0.08034495       0.80175414       0.86284358
O        6.37179561       1.21687458       3.03602656      -0.05307916       0.91671644       2.04793368
O       -0.00489937       2.45611962       6.50222908       0.04524629      -0.59181807       0.88663812
O        4.24553705       2.48213263       6.51048500      -0.03783637      -1.76444501       0.61280471
O       -0.00049548       2.45223040       3.91295029       0.16801472       1.36708418       0.89331682
O        4.22902614       2.45027214       3.90432922       0.50310032       1.52161243       1.08373358
O        2.11990947       1.23565419       0.44862965       0.33033908      -1.30160073       0.89289953
O        6.36205205       1.24941248       0.45353611      -0.56253679      -1.30928267       0.73623212
O       -0.00874216       4.90460009       3.03293311       0.06186848       1.04007031       2.44725009
O        4.23771511       4.90902345       3.04784208       0.11952061       1.24784382       1.07569399
O        2.11813751       6.15247123       6.51397366       0.03121475      -1.01397103       0.79433856
O        6.36036813       6.15321195       6.51165962       0.02113833      -0.95852208       1.28188216
O        2.12847746       6.13103516       3.91868224      -0.95507809       1.16435698       0.73777427
O        6.37581417       6.15176677       3.91235289      -0.92482339       0.89835901       0.64080738
O        0.01336527       4.93105666       0.45641664      -1.42406242      -1.43030892       0.80873494
O        4.23615426       4.92329015       0.44539455       0.61858044      -1.22576318       0.88394154
48
Lattice="8.4801444672 0.0 0.0 -0.0 7.3754905448 0.0 0.0 0.0 6.9263525464" Properties=species:S:1:pos:R:3:forces:R:3 energy=-7702.580881286045 pbc="T T T"
H        2.13367343       1.19904043       2.07297152      -0.05593103       0.01774011      -1.18422287
H        6.35989897       1.20476303       2.05925560       0.01689010       0.00417393      -1.17695359
H        0.00316547       2.47414488       5.53506490      -0.01307201       0.00381886      -1.20881266
H        4.24435151       2.46401919       5.52929246       0.02433113       0.04863475      -1.15312639
H        2.11906159       0.30249494       3.35877090       0.01468486      -1.52936174       0.48570140
H        6.36154602       0.29098623       3.35029804       0.00528182      -0.96205761       0.30334428
H       -0.00272418       3.39339635       6.81467945       0.00632697       1.24838324       0.39748115
H        4.24134898       3.39829252       6.81469385       0.03322150       1.02830699       0.25298741
H        0.78452819       1.96121287       3.58649964       0.96970613      -0.54535308      -0.43753279
H        5.00811378       1.98057237       3.57291842       1.92439701      -1.02929096      -0.72784800
H        3.46608501       1.96753256       3.57749311      -0.89882875      -0.41553314      -0.25890866
H        7.68421251       1.96704532       3.58950924      -0.68667562      -0.39271510      -0.32582371
H        1.33014062       1.70787300       0.11406636      -1.31110096       0.82237568      -0.53865329
H        5.56560797       1.72379080       0.11894528      -0.64634554       0.36501325      -0.28284410
H        2.88777235       1.71254139       0.12899594       1.76274422       1.06796499      -0.76098979
H        7.14470593       1.71714208       0.13109826       1.03814301       0.60157310      -0.45063257
H        0.01437817       4.88901020       2.07159767      -0.03816522       0.02231256      -1.29442092
H        4.24801743       4.89224975       2.05897584      -0.00558290       0.02918203      -0.89676493
H        2.11837604       6.16855115       5.53845856       0.00194221      -0.04030283      -1.82154126
H        6.35734410       6.16640227       5.53514487       0.02027650      -0.03601963      -1.21845738
H       -0.00840470       3.98735731       3.35791827       0.02492866      -1.27049396       0.40394825
H        4.22574942       3.97568915       3.34397372       0.05610201      -1.10481637       0.40413723
H        2.11923630       7.09400105       6.79818373       0.00015015       0.95476853       0.36141756
H        6.36287255       7.08353556       6.80949180      -0.00103770       1.06111686       0.38677199
H        2.90043548       5.66753960       3.58534574       1.21814397      -0.68052657      -0.49875515
H        7.14408654       5.66712907       3.58513584       1.11486271      -0.57444486      -0.43181594
H        1.33583292       5.66339040       3.58192312      -0.89244547      -0.48156269      -0.34736596
H        5.57523323       5.66293893       3.58171991      -0.52998661      -0.23679768      -0.16988597
H        3.45444535       5.40977647       0.10465133      -0.36469649       0.08740572      -0.06876264
H        7.69549468       5.40441952       0.12026666      -0.90436794       0.57646292      -0.40225827
H        0.79226710       5.38719858       0.12678703       1.15552138       0.75957234      -0.53917677
H        5.02026010       5.39947580       0.12227310       1.41279430       0.72947783      -0.52639118
O        2.12010715       1.21940980       3.04863639       0.07890796       1.48830661       0.63053402
O        6.35565202       1.22106007       3.03698252       0.05202347       0.95281474       0.90490890
O        0.00012583       2.46784752       6.51234949      -0.00880732      -1.20335060       0.79679654
O        4.24663424       2.46804203       6.50654052      -0.00040983      -1.06961178       0.96157552
O        0.00354478       2.44779216       3.91136274      -0.36634302       0.99240461       0.73583874
O        4.25191092       2.44487368       3.92194779      -1.12909583       1.46898322       0.95671100
O        2.11552307       1.23980858       0.43008621      -0.40910152      -1.93523370       1.33153121
O        6.35971478       1.23543681       0.44922075      -0.41853850      -1.00608828       0.65292551
O       -0.00320707       4.90974373       3.04600694       0.03632070       1.18685157       0.91071240
O        4.24095824       4.90482200       3.04413877       0.04537588       1.08355874       0.53135213
O        2.11708900       6.15826911       6.50115184       0.13379050      -0.91899135       1.53870436
O        6.35820338       6.15077950       6.51185059       0.02431313      -0.95166777       0.86320096
O        2.12268249       6.14884125       3.90763843      -0.35956354       1.14713701       0.81037145
O        6.36956454       6.15670125       3.91610760      -0.67580500       0.76652795       0.56428849
O        0.00344774       4.92642619       0.44882522      -0.28472383      -1.34820945       0.92470640
O        4.25141606       4.90946281       0.44449473      -1.17055617      -0.78243949       0.61199661
48
Lattice="8.4801444672 0.0 0.0 -0.0 7.3754905448 0.0 0.0 0.0 6.9263525464" Properties=species:S:1:pos:R:3:forces:R:3 energy=-7702.606167747893 pbc="T T T"
H        2.11511097       1.20980960       2.07880250       0.03722573       0.07969703      -1.26086646
H        6.35945369       1.20855584       2.07264089       0.01444498      -0.03064653      -1.44927467
H       -0.00523318       2.48205367       5.53539965      -0.00944701       0.04072758      -1.04736196
H        4.24242086       2.48107441       5.53667914       0.00779045       0.02076218      -1.84738678
H        2.12325385       0.29555601       3.34117676       0.00925263      -1.40367537       0.55795637
H        6.35647961       0.28750156       3.35316626       0.01956662      -1.10235968       0.33628502
H        0.01192562       3.40746158       6.81948739      -0.01225285       1.23695879       0.35219552
H        4.24977882       3.41055581       6.81740231      -0.04572786       0.57707999       0.15759712
H        0.78458803       1.97234113       3.57417849       0.60424062      -0.24943697      -0.16422954
H        5.03937264       1.97567172       3.58470705       0.83200421      -0.55126507      -0.39160310
H        3.45721337       1.98123747       3.58215408      -1.01704839      -0.67906130      -0.45345101
H        7.70092328       1.98107839       3.56916836      -1.22828029      -0.65796770      -0.43499948
H        1.33632354       1.70108746       0.12400519      -1.03882050       0.70821994      -0.48750760
H        5.57216181       1.71236420       0.11681577      -0.30501396       0.15784909      -0.14251914
H        2.90943250       1.70895236       0.11546705       1.39061981       0.91626624      -0.64401689
H        7.15586842       1.70588753       0.12891062       1.07564951       0.67419317      -0.45781160
H       -0.00199994       4.90509864       2.06413788       0.00239318      -0.03445845      -0.86265357
H        4.23832930       4.88835451       2.05678825       0.00340568       0.04400496      -0.52621532
H        2.11590967       6.16973247       5.53705526      -0.01033738      -0.02368013      -1.62851561
H        6.37076939       6.16834533       5.52996949      -0.03520382       0.02255656      -0.97364249
H        0.00129327       3.97946746       3.35068506       0.00126858      -1.25608395       0.37968166
H        4.24244268       3.97424477       3.35249282       0.00418473      -1.08814199       0.38302564
H        2.11642812       7.08887792       6.81850302       0.02579769       0.52732372       0.16765811
H        6.36235369       7.07114359       6.82670219       0.01262181       1.60420762       0.47794464
H        2.90485945       5.66343456       3.58180801       1.03017876      -0.59906962      -0.39680830
H        7.15102903       5.65110114       3.58768489       0.63858955      -0.32456515      -0.26716319
H        1.33886705       5.67423170       3.57334452      -1.08579226      -0.64842608      -0.39973344
H        5.57597887       5.66344413       3.58106185      -1.13116736      -0.65328855      -0.43395073
H        3.46736117       5.38614274       0.11947989      -1.54194190       0.86095433      -0.61365755
H        7.69876703       5.40198696       0.12239923      -0.95505726       0.63971029      -0.46930932
H        0.79391536       5.39414466       0.13009753       1.53798446       1.00245968      -0.72722374
H        5.02910924       5.39955559       0.11771510       0.80503564       0.43724483      -0.29091917
O        2.12421728       1.22258328       3.05399353      -0.09712321       1.31240553       0.68398111
O        6.37209028       1.21516041       3.04375228      -0.04494907       1.10697302       1.13520940
O       -0.00774248       2.48202849       6.51519506       0.06016281      -1.33743138       0.65992380
O        4.22615647       2.47155299       6.49840829       0.17834902      -0.60124117       1.79018253